# vtk DataFile Version 4.2
1D Peridynamics Output
ASCII
DATASET POLYDATA
POINTS 15 float
0.050000 0.0 0.0
0.150000 0.0 0.0
0.250000 0.0 0.0
0.398531 0.0 0.0
0.527335 0.0 0.0
0.657788 0.0 0.0
0.790152 0.0 0.0
0.921500 0.0 0.0
1.053163 0.0 0.0
1.184534 0.0 0.0
1.315732 0.0 0.0
1.450078 0.0 0.0
1.575673 0.0 0.0
1.704455 0.0 0.0
1.890000 0.0 0.0
POINT_DATA 15
SCALARS BC int 1
LOOKUP_TABLE default
0
0
0
1
1
1
1
1
1
1
1
1
1
1
0
SCALARS Color float 1
LOOKUP_TABLE default
0.000000
0.000000
0.000000
1.000000
1.000000
1.000000
1.000000
1.000000
1.000000
1.000000
1.000000
1.000000
1.000000
1.000000
1.000000
